TITLE     = "Ensight Gold"
VARIABLES = "X"
"Y"
ZONE T="Surf: tank"
 STRANDID=1, SOLUTIONTIME=0
 Nodes=27778, Faces=45214, Elements=17436, ZONETYPE=FEPolygon
 DATAPACKING=BLOCK
 NumConnectedBoundaryFaces=0, TotalNumBoundaryConnections=0
 DT=(SINGLE SINGLE )
 1.536386311E-01 1.559214145E-01 1.532813013E-01 1.555815935E-01 1.519180685E-01
 1.515474319E-01 1.587025821E-01 1.583842039E-01 1.528525203E-01 1.551737934E-01
 1.507688612E-01 1.503892690E-01 1.511026770E-01 1.619646847E-01 1.616715193E-01
 1.580021530E-01 1.523379833E-01 1.546844244E-01 1.501647085E-01 1.497806162E-01
 1.499337703E-01 1.505689621E-01 8.108108304E-03 1.351351384E-02 8.108108304E-03
 1.351351384E-02 2.702702768E-03 2.702702535E-03 0.000000000E+00 0.000000000E+00
 1.656879485E-01 1.654234231E-01 1.613197178E-01 1.698075086E-01 1.695746928E-01
 1.575436741E-01 1.517205238E-01 1.540971994E-01 1.501647085E-01 1.497806162E-01
 1.493196934E-01 1.493871659E-01 1.499285102E-01 2.425570041E-02 1.885029487E-02
 2.425570041E-02 1.885029487E-02 8.108108304E-03 1.351351384E-02 2.702702535E-03
 0.000000000E+00 1.742717177E-01 1.740733683E-01 1.651059985E-01 1.608975679E-01
 1.692953110E-01 1.569935232E-01 1.509795934E-01 1.533925235E-01 1.790474653E-01
 1.788859367E-01 1.507688612E-01 1.503892690E-01 1.493196934E-01 1.487666070E-01
 1.487312317E-01 1.491599530E-01 2.972972952E-02 2.972972952E-02 2.425570041E-02
 1.885029487E-02 8.108108304E-03 1.351351384E-02 2.702702535E-03 0.000000000E+00
 1.738353521E-01 1.647250801E-01 1.603909731E-01 1.689600646E-01 1.563333273E-01
 1.500904709E-01 1.525469124E-01 1.840706766E-01 1.839477867E-01 1.786920875E-01
 1.519180685E-01 1.515474319E-01 1.499337703E-01 1.487666070E-01 1.481028944E-01
 1.479441226E-01 1.482377052E-01 4.594594613E-02 5.135134980E-02 4.594594613E-02
 5.135134980E-02 3.513513505E-02 3.513513505E-02 2.972972952E-02 4.054053873E-02
 4.054053873E-02 5.675675720E-02 5.675675720E-02 2.425570041E-02 1.885029487E-02
 8.108108304E-03 1.351351384E-02 2.702702535E-03 0.000000000E+00 1.735497415E-01
 1.642679870E-01 1.597830504E-01 1.685577482E-01 1.555410922E-01 1.490235180E-01
 1.515321732E-01 1.892627180E-01 1.891798973E-01 1.838003248E-01 1.784594655E-01
 1.536386311E-01 1.532813013E-01 1.511026770E-01 1.493871659E-01 1.481028944E-01
 1.473064274E-01 1.469995826E-01 1.471309960E-01 2.463613749E-01 2.480819374E-01
 2.467186898E-01 2.484525740E-01 2.440785766E-01 2.444184124E-01 2.412974089E-01
 2.416158020E-01 2.380353063E-01 2.383284718E-01 2.343120575E-01 2.345765829E-01
 2.301924825E-01 2.304252982E-01 4.594594613E-02 5.135134980E-02 3.513513505E-02
 2.972972952E-02 4.054053873E-02 6.216216087E-02 6.216216087E-02 5.675675720E-02
 2.425570041E-02 1.885029487E-02 8.108108304E-03 1.351351384E-02 2.702702535E-03
 0.000000000E+00 6.756756455E-02 6.756756455E-02 7.297297567E-02 7.297297567E-02
 1.732069999E-01 1.637194753E-01 1.590535641E-01 1.680749804E-01 1.545904130E-01
 1.477431655E-01 1.503144950E-01 1.945935637E-01 1.945519149E-01 1.890805066E-01
 1.836233586E-01 1.781803370E-01 1.559214145E-01 1.555815935E-01 1.528525203E-01
 1.505689621E-01 1.487312317E-01 1.473064274E-01 1.463506818E-01 1.458661407E-01
 1.458029598E-01 2.492311448E-01 2.496107221E-01 2.471474856E-01 2.488973290E-01
 2.448262125E-01 2.419978529E-01 2.000000030E-01 2.000000030E-01 2.386802733E-01
 2.348940074E-01 2.257282734E-01 2.259266227E-01 2.307046801E-01 4.594594613E-02
 5.135134980E-02 3.513513505E-02 2.972972952E-02 4.054053873E-02 6.216216087E-02
 5.675675720E-02 2.425570041E-02 1.885029487E-02 8.108108304E-03 1.351351384E-02
 2.702702535E-03 0.000000000E+00 7.837837934E-02 7.837837934E-02 6.756756455E-02
 7.297297567E-02 1.727956980E-01 1.630612612E-01 1.581781656E-01 1.674956679E-01
 1.534495950E-01 1.462067515E-01 1.488532722E-01 1.945019364E-01 1.889612377E-01
 1.834110171E-01 1.778453737E-01 1.587025821E-01 1.583842039E-01 1.551737934E-01
 1.523379833E-01 1.499285102E-01 1.479441226E-01 1.463506818E-01 1.452037841E-01
 1.445060223E-01 1.442092955E-01 2.498352975E-01 2.502193749E-01 2.500662208E-01
 2.476620227E-01 2.494310439E-01 2.453155667E-01 2.424563169E-01 2.054064274E-01
 2.054480910E-01 2.000000030E-01 2.209525257E-01 2.211140692E-01 2.391024381E-01
 2.352749109E-01 2.261646390E-01 2.310399413E-01 8.378378302E-02 8.378378302E-02
 8.918918669E-02 8.918918669E-02 4.594594613E-02 5.135134980E-02 3.513513505E-02
 2.972972952E-02 4.054053873E-02 6.216216087E-02 5.675675720E-02 2.425570041E-02
 1.885029487E-02 8.108108304E-03 1.351351384E-02 2.702702535E-03 0.000000000E+00
 7.837837934E-02 6.756756455E-02 7.297297567E-02 1.723021567E-01 1.622714102E-01
 1.571277082E-01 1.668004841E-01 1.520806104E-01 1.443630606E-01 1.470998079E-01
 1.944419593E-01 1.888181120E-01 1.831561923E-01 1.774434149E-01 1.619646847E-01
 1.616715193E-01 1.580021530E-01 1.546844244E-01 1.517205238E-01 1.491599530E-01
 1.469995826E-01 1.452037841E-01 1.438275129E-01 1.422969103E-01 1.428738534E-01
 1.324659288E-01 1.358944923E-01 1.365486979E-01 1.379991770E-01 1.313627213E-01
 1.333408058E-01 2.498352975E-01 2.502193749E-01 2.506802976E-01 2.506128252E-01
 2.482794672E-01 2.500714958E-01 2.459028065E-01 2.430064827E-01 2.107372880E-01
 2.108201087E-01 2.159293145E-01 2.160522044E-01 2.054980695E-01 2.000000030E-01
 2.213079184E-01 2.396090329E-01 2.357320040E-01 2.264502645E-01 2.314422429E-01
 1.162162125E-01 1.108108088E-01 1.162162125E-01 1.108108088E-01 9.459459782E-02
 9.459459782E-02 8.378378302E-02 8.918918669E-02 1.054054052E-01 1.054054052E-01
 1.000000015E-01 1.000000015E-01 4.594594613E-02 5.135134980E-02 3.513513505E-02
 2.972972952E-02 4.054053873E-02 6.216216087E-02 5.675675720E-02 2.425570041E-02
 1.885029487E-02 8.108108304E-03 1.351351384E-02 2.702702535E-03 0.000000000E+00
 7.837837934E-02 6.756756455E-02 7.297297567E-02 1.278424710E-01 1.273722202E-01
 1.307477355E-01 1.377338022E-01 1.354919970E-01 1.317138225E-01 1.717098951E-01
 1.613235772E-01 1.558671445E-01 1.659662575E-01 1.406351924E-01 1.429564357E-01
 1.428984851E-01 1.406978518E-01 1.458416879E-01 1.504378319E-01 1.402721703E-01
 1.369116902E-01 1.943699718E-01 1.886463761E-01 1.828503907E-01 1.769610494E-01
 1.411888301E-01 1.367174536E-01 1.393131167E-01 1.656879485E-01 1.654234231E-01
 1.613197178E-01 1.575436741E-01 1.540971994E-01 1.509795934E-01 1.482377052E-01
 1.458661407E-01 1.438275129E-01 1.421759725E-01 1.409152746E-01 1.698075086E-01
 1.695746928E-01 1.349601448E-01 1.320428103E-01 1.303715706E-01 1.256313920E-01
 1.270572841E-01 1.226352826E-01 1.217328757E-01 1.242587492E-01 2.702702768E-03
 8.108108304E-03 2.702702768E-03 8.108108304E-03 0.000000000E+00 0.000000000E+00
 1.351351384E-02 1.351351384E-02 1.885029487E-02 1.885029487E-02 2.425570041E-02
 2.425570041E-02 2.492311448E-01 2.496107221E-01 2.506802976E-01 2.512333989E-01
 2.512687743E-01 2.490204126E-01 2.508400381E-01 2.466074824E-01 2.436666787E-01
 2.109194994E-01 2.161996812E-01 2.055580467E-01 2.000000030E-01 2.215405256E-01
 2.402169406E-01 2.362805158E-01 2.267930061E-01 2.319250107E-01 1.216216236E-01
 1.216216236E-01 1.270270199E-01 1.270270199E-01 1.162162125E-01 1.108108088E-01
 9.459459782E-02 8.378378302E-02 8.918918669E-02 1.054054052E-01 1.000000015E-01
 4.594594613E-02 5.135134980E-02 3.513513505E-02 2.972972952E-02 4.054053873E-02
 6.216216087E-02 5.675675720E-02 1.885029487E-02 2.425570041E-02 3.019112395E-03
 8.182622492E-03 5.796329584E-03 1.076234505E-02 1.339053269E-02 1.217310666E-03
 5.232690368E-03 2.455472946E-03 0.000000000E+00 7.837837934E-02 6.756756455E-02
 7.297297567E-02 1.324324310E-01 1.324324310E-01 1.202664822E-01 1.238534823E-01
 1.188351065E-01 1.177739725E-01 1.264026016E-01 1.297242790E-01 1.320237964E-01
 1.354330182E-01 1.709991693E-01 1.601861715E-01 1.543544531E-01 1.649651974E-01
 1.455800235E-01 1.423317790E-01 1.485550851E-01 1.411795467E-01 1.376412958E-01
 1.942836046E-01 1.884402782E-01 1.824834496E-01 1.763822287E-01 1.397849768E-01
 1.372044683E-01 1.651059985E-01 1.608975679E-01 1.569935232E-01 1.533925235E-01
 1.500904709E-01 1.471309960E-01 1.445060223E-01 1.401941478E-01 1.421759725E-01
 1.742717177E-01 1.790474653E-01 1.740733683E-01 1.788859367E-01 1.692953110E-01
 1.303765774E-01 1.270179749E-01 1.253699213E-01 1.320764124E-01 1.359869689E-01
 1.216962636E-01 1.203874946E-01 1.253068745E-01 1.219627634E-01 1.200001985E-01
 1.158969402E-01 1.165469289E-01 1.146935597E-01 1.117692217E-01 1.119114682E-01
 2.702702768E-03 8.108108304E-03 0.000000000E+00 1.351351384E-02 1.885029487E-02
 2.972972952E-02 2.972972952E-02 2.425570041E-02 3.513513505E-02 3.513513505E-02
 2.480819374E-01 2.484525740E-01 2.500662208E-01 2.512333989E-01 2.518970966E-01
 2.520558834E-01 2.499095351E-01 2.517623007E-01 2.474530935E-01 2.444589138E-01
 2.110387683E-01 2.163766325E-01 2.056300193E-01 2.000000030E-01 2.218196690E-01
 2.409464419E-01 2.369387448E-01 2.272042930E-01 2.325043380E-01 1.129611880E-01
 1.187712848E-01 1.145464033E-01 1.199005619E-01 1.166545898E-01 1.135549992E-01
 1.081958935E-01 1.091499254E-01 1.216216236E-01 1.270270199E-01 1.162162125E-01
 1.108108088E-01 9.459459782E-02 8.378378302E-02 8.918918669E-02 1.054054052E-01
 1.000000015E-01 4.594594613E-02 5.135134980E-02 3.513513505E-02 2.972972952E-02
 4.054053873E-02 6.216216087E-02 5.675675720E-02 1.902012527E-02 2.169379219E-02
 2.424953878E-02 1.624019071E-02 1.003634185E-02 1.264969725E-02 1.622535847E-02
 6.892980542E-03 0.000000000E+00 1.238162280E-03 4.115763120E-03 7.837837934E-02
 6.756756455E-02 7.297297567E-02 1.378378421E-01 1.378378421E-01 1.432876289E-01
 1.432876289E-01 1.486930400E-01 1.486930400E-01 1.324324310E-01 1.269529015E-01
 1.305848509E-01 1.224939600E-01 1.255019754E-01 1.175747514E-01 1.211610287E-01
 1.157558486E-01 1.121661291E-01 1.108854488E-01 1.362442374E-01 1.325970143E-01
 1.701463163E-01 1.487160921E-01 1.526056677E-01 1.588212997E-01 1.637639105E-01
 1.462541819E-01 1.520416737E-01 1.481771916E-01 1.431744099E-01 1.381522119E-01
 1.415441334E-01 1.941799670E-01 1.881929636E-01 1.820431054E-01 1.756876558E-01
 1.840706766E-01 1.839477867E-01 1.892627180E-01 1.891798973E-01 1.380867213E-01
 1.647250801E-01 1.603909731E-01 1.563333273E-01 1.525469124E-01 1.490235180E-01
 1.458029598E-01 1.428738534E-01 1.401941478E-01 1.738353521E-01 1.786920875E-01
 1.689600646E-01 1.302265674E-01 1.268156320E-01 1.337570250E-01 1.366073787E-01
 1.311573386E-01 1.163455993E-01 1.142010912E-01 1.165149286E-01 1.201742515E-01
 1.250318885E-01 1.217346117E-01 1.083464101E-01 1.043299809E-01 1.043382511E-01
 1.099860445E-01 2.702702768E-03 8.108108304E-03 0.000000000E+00 1.351351384E-02
 1.885029487E-02 2.972972952E-02 2.425570041E-02 4.054053873E-02 4.054053873E-02
 3.513513505E-02 4.594594613E-02 4.594594613E-02 5.135134980E-02 5.135134980E-02
 2.463613749E-01 2.467186898E-01 2.488973290E-01 2.506128252E-01 2.518970966E-01
 2.526935637E-01 2.530004084E-01 2.509765029E-01 2.528690100E-01 2.484678179E-01
 2.454095930E-01 2.111818790E-01 2.165889889E-01 2.057163864E-01 2.000000030E-01
 2.221546322E-01 2.418218255E-01 2.377285957E-01 2.276978493E-01 2.331995219E-01
 1.078795195E-01 1.067363247E-01 1.025466099E-01 1.010942981E-01 1.648701429E-01
 1.594594568E-01 1.648701429E-01 1.594594568E-01 1.540540606E-01 1.540540606E-01
 1.216216236E-01 1.270270199E-01 1.162162125E-01 1.108108088E-01 9.459459782E-02
 8.378378302E-02 8.918918669E-02 1.054054052E-01 1.000000015E-01 5.135134980E-02
 4.594594613E-02 3.513513505E-02 2.964699268E-02 2.691525407E-02 4.054053873E-02
 6.216216087E-02 5.675675720E-02 2.280748263E-02 2.618139423E-02 1.848801039E-02
 2.137258649E-02 1.696822979E-02 1.320165303E-02 6.133454852E-03 1.106693503E-02
 0.000000000E+00 3.255853895E-03 7.837837934E-02 6.756756455E-02 7.297297567E-02
 1.378378421E-01 1.432876289E-01 1.486930400E-01 1.324324310E-01 1.810810864E-01
 1.756756753E-01 1.810810864E-01 1.756756753E-01 1.311012208E-01 1.276381314E-01
 1.228758618E-01 1.263449490E-01 1.065150052E-01 1.050220802E-01 1.106531173E-01
 1.215619519E-01 1.180282161E-01 1.166090518E-01 1.128236726E-01 1.365220696E-01
 1.331183016E-01 1.691228896E-01 1.576125324E-01 1.540706456E-01 1.626868099E-01
 1.589706242E-01 1.517830640E-01 1.483397037E-01 1.431480497E-01 1.463803351E-01
 1.415576786E-01 1.383236200E-01 1.940555871E-01 1.878961921E-01 1.748541445E-01
 1.815147102E-01 1.838003248E-01 1.945935637E-01 1.945519149E-01 1.890805066E-01
 1.387795210E-01 1.372966170E-01 1.343168318E-01 1.642679870E-01 1.597830504E-01
 1.555410922E-01 1.515321732E-01 1.477431655E-01 1.442092955E-01 1.409152746E-01
 1.348015368E-01 1.376356930E-01 1.329620183E-01 1.735497415E-01 1.784594655E-01
 1.685577482E-01 1.289805770E-01 1.262660623E-01 1.302254498E-01 9.629198909E-02
 9.501918405E-02 9.982976317E-02 1.243751943E-01 1.212263927E-01 1.198199838E-01
 1.148038581E-01 1.165485531E-01 1.116790697E-01 1.089763790E-01 1.077167839E-01
 1.059121192E-01 1.051686034E-01 1.099965423E-01 1.014984325E-01 1.027879119E-01
 9.906583279E-02 2.702702768E-03 8.108108304E-03 0.000000000E+00 1.351351384E-02
 1.885029487E-02 5.675675720E-02 5.675675720E-02 6.216216087E-02 6.216216087E-02
 2.972972952E-02 2.425570041E-02 4.054053873E-02 3.513513505E-02 4.594594613E-02
 5.135134980E-02 6.756756455E-02 6.756756455E-02 7.297297567E-02 7.297297567E-02
 7.837837934E-02 7.837837934E-02 2.440785766E-01 2.444184124E-01 2.471474856E-01
 2.494310439E-01 2.512687743E-01 2.526935637E-01 2.536493242E-01 2.541338503E-01
 2.522568405E-01 2.541970611E-01 2.496855110E-01 2.465504110E-01 2.113536298E-01
 2.168438137E-01 2.058200389E-01 2.000000030E-01 2.225565910E-01 2.428722978E-01
 2.386764288E-01 2.282901108E-01 2.340337485E-01 1.006863564E-01 9.935408086E-02
 9.340301901E-02 9.179324657E-02 9.766618162E-02 1.001926586E-01 1.047057584E-01
 1.702755541E-01 1.702755541E-01 1.648701429E-01 1.594594568E-01 1.540540606E-01
 1.216216236E-01 1.270270199E-01 1.162162125E-01 1.108108088E-01 9.459459782E-02
 8.378378302E-02 8.918918669E-02 1.054054052E-01 1.000000015E-01 4.833498225E-02
 5.117029697E-02 4.581333324E-02 3.234713525E-02 3.513257205E-02 3.264245391E-02
 2.764329873E-02 3.047428280E-02 4.061326385E-02 4.318335280E-02 3.790799901E-02
 6.216216087E-02 5.366250500E-02 5.654625967E-02 0.000000000E+00 0.000000000E+00
 4.005925730E-03 8.516948670E-03 4.511023406E-03 0.000000000E+00 7.799454499E-03
 3.793529002E-03 2.211448923E-02 1.877282187E-02 1.538449898E-02 2.501128986E-02
 7.744027302E-03 1.493919175E-02 0.000000000E+00 8.641629480E-03 4.153456073E-03
 0.000000000E+00 4.153456073E-03 7.837837934E-02 6.756756455E-02 7.297297567E-02
 1.378378421E-01 1.432876289E-01 1.486930400E-01 1.324324310E-01 1.864231378E-01
 1.864231378E-01 1.918285489E-01 1.918285489E-01 1.810810864E-01 1.756756753E-01
 1.283653229E-01 1.316755712E-01 1.236857772E-01 1.270200610E-01 9.961882234E-02
 1.040836871E-01 1.069808528E-01 1.109606549E-01 1.186598390E-01 1.222028211E-01
 1.128376648E-01 1.167514697E-01 1.368225366E-01 1.335782707E-01 1.641402245E-01
 1.679301113E-01 1.569392830E-01 1.532936096E-01 1.620710492E-01 1.585862935E-01
 1.515580565E-01 1.480881572E-01 1.433729380E-01 1.466711313E-01 1.387148499E-01
 1.420311779E-01 1.716801077E-01 1.688237041E-01 1.746073514E-01 1.939063370E-01
 1.808806211E-01 1.875400692E-01 1.836233586E-01 2.000000030E-01 2.054064274E-01
 2.000000030E-01 2.054480910E-01 1.945019364E-01 1.889612377E-01 1.395993531E-01
 1.637194753E-01 1.590535641E-01 1.545904130E-01 1.503144950E-01 1.462067515E-01
 1.422969103E-01 1.351033896E-01 1.327994317E-01 1.295704097E-01 1.286657453E-01
 1.382888854E-01 1.732069999E-01 1.781803370E-01 1.680749804E-01 1.248240918E-01
 1.233936995E-01 1.202448905E-01 1.236966848E-01 1.269282550E-01 1.333757937E-01
 1.305701137E-01 1.273516119E-01 9.024934471E-02 9.388695657E-02 8.988104016E-02
 8.546387404E-02 8.519277722E-02 0.000000000E+00 4.427520093E-03 8.938543499E-03
 1.149393171E-01 1.115120873E-01 1.172292382E-01 1.092430130E-01 1.029691100E-01
 1.047844663E-01 9.751206636E-02 9.823922813E-02 9.362266213E-02 2.702702768E-03
 8.108108304E-03 0.000000000E+00 1.351351384E-02 1.885029487E-02 5.675675720E-02
 6.216216087E-02 2.972972952E-02 2.425570041E-02 4.054053873E-02 3.513513505E-02
 4.594594613E-02 5.135134980E-02 6.756756455E-02 8.378378302E-02 8.378378302E-02
 7.297297567E-02 7.837837934E-02 8.918918669E-02 9.459459782E-02 8.918918669E-02
 9.459459782E-02 2.412974089E-01 2.416158020E-01 2.448262125E-01 2.476620227E-01
 2.500714958E-01 2.520558834E-01 2.536493242E-01 2.547962070E-01 2.554939687E-01
 2.537932396E-01 2.557907104E-01 2.107372880E-01 2.108201087E-01 2.257282734E-01
 2.209525257E-01 2.259266227E-01 2.211140692E-01 2.511467338E-01 2.479193956E-01
 2.115597129E-01 2.171496004E-01 2.059444040E-01 2.000000030E-01 2.230389416E-01
 2.441328615E-01 2.398138195E-01 2.290008217E-01 2.350348085E-01 8.961015195E-02
 9.254103154E-02 8.372505754E-02 8.118855208E-02 1.764887385E-02 2.173551545E-02
 1.703111082E-02 9.065239131E-02 9.520369023E-02 1.702755541E-01 1.648701429E-01
 1.594594568E-01 1.540540606E-01 1.216216236E-01 1.270270199E-01 1.162162125E-01
 1.108108088E-01 9.459459782E-02 8.378378302E-02 8.918918669E-02 1.054054052E-01
 1.000000015E-01 4.435637966E-02 4.770620912E-02 4.983258620E-02 5.295356736E-02
 3.155129403E-02 3.271396086E-02 2.667960525E-02 3.572563455E-02 3.608333692E-02
 3.820573911E-02 4.365725815E-02 4.098016769E-02 5.896708742E-02 6.188028678E-02
 5.489300564E-02 5.802277103E-02 1.593501121E-02 2.065564506E-02 0.000000000E+00
 0.000000000E+00 4.280789290E-03 4.280789290E-03 8.074318059E-03 1.981122047E-02
 1.595645212E-02 0.000000000E+00 9.248186834E-03 4.967397079E-03 8.960673586E-03
 9.774615057E-03 2.057610266E-02 2.603139170E-02 1.731844246E-02 2.205774933E-02
 1.763748564E-02 7.837837934E-02 6.736651063E-02 6.970079988E-02 7.260456681E-02
 6.438192725E-02 1.378378421E-01 1.432876289E-01 1.486930400E-01 1.324324310E-01
 1.864231378E-01 1.972972900E-01 1.972972900E-01 1.918285489E-01 1.810810864E-01
 1.756756753E-01 1.320469081E-01 1.287989467E-01 1.269198656E-01 1.236580238E-01
 1.056296229E-01 1.104037985E-01 9.621274471E-02 1.021737978E-01 1.174937487E-01
 1.132012084E-01 1.208573133E-01 1.371698231E-01 1.337461472E-01 1.663028598E-01
 1.633400917E-01 1.568061709E-01 1.583510786E-01 1.614002287E-01 1.534236073E-01
 1.519547254E-01 1.486721486E-01 1.439175606E-01 1.472603381E-01 1.424532980E-01
 1.390218884E-01 1.692951173E-01 1.715271920E-01 1.669271737E-01 1.739722639E-01
 1.760931015E-01 1.781571805E-01 1.806890815E-01 1.937272400E-01 1.871127039E-01
 1.834110171E-01 2.000000030E-01 2.054980695E-01 1.944419593E-01 1.888181120E-01
 1.403502375E-01 1.630612612E-01 1.581781656E-01 1.534495950E-01 1.443630606E-01
 1.488532722E-01 1.395096183E-01 1.363307387E-01 1.352335215E-01 1.316066533E-01
 1.727956980E-01 1.778453737E-01 1.674956679E-01 1.156937256E-01 1.210665852E-01
 1.175096780E-01 1.165792793E-01 1.201361865E-01 1.213803291E-01 1.248703897E-01
 1.297423691E-01 1.260057688E-01 1.242024079E-01 8.934909850E-02 8.481825143E-02
 8.455059677E-02 8.131073415E-02 7.498631626E-02 7.212632895E-02 7.578134537E-02
 6.323560327E-02 7.129987329E-02 6.437672675E-02 5.917244032E-02 4.998667911E-02
 4.481164739E-02 5.007063225E-02 5.930882692E-02 2.209726721E-02 9.400326759E-03
 1.835974306E-02 0.000000000E+00 4.972806666E-03 1.110660881E-01 1.088644937E-01
 1.020996273E-01 1.042402759E-01 9.507539868E-02 9.712043405E-02 9.007465839E-02
 8.098835498E-02 7.984357327E-02 8.642093092E-02 1.000000015E-01 1.000000015E-01
 1.054054052E-01 1.054054052E-01 2.702702768E-03 8.108108304E-03 0.000000000E+00
 1.351351384E-02 1.885029487E-02 5.675675720E-02 6.216216087E-02 2.972972952E-02
 2.425570041E-02 4.054053873E-02 3.513513505E-02 4.594594613E-02 5.135134980E-02
 6.756756455E-02 8.378378302E-02 7.297297567E-02 7.837837934E-02 8.918918669E-02
 9.459459782E-02 2.380353063E-01 2.383284718E-01 2.419978529E-01 2.453155667E-01
 2.482794672E-01 2.508400381E-01 2.530004084E-01 2.547962070E-01 2.561724782E-01
 2.571261525E-01 2.556369305E-01 2.577030957E-01 2.343120575E-01 2.345765829E-01
 2.301924825E-01 2.304252982E-01 2.159293145E-01 2.160522044E-01 2.109194994E-01
 2.261646390E-01 2.213079184E-01 2.529001832E-01 2.495621592E-01 2.118070275E-01
 2.175165564E-01 2.060936540E-01 2.000000030E-01 2.236177623E-01 2.456455380E-01
 2.411787063E-01 2.298536748E-01 2.362360954E-01 2.027027011E-01 2.027027011E-01
 2.081081122E-01 2.081081122E-01 8.114946634E-02 7.492651790E-02 8.514591306E-02
 6.388264894E-02 7.143606246E-02 5.850574002E-02 4.947105795E-02 3.509347141E-02
 3.109412827E-02 3.588581458E-02 4.366881400E-02 3.018325008E-02 3.450228274E-02
 2.967908047E-02 8.629682660E-02 9.281235188E-02 1.702755541E-01 1.648701429E-01
 1.594594568E-01 1.540540606E-01 1.216216236E-01 1.270270199E-01 1.162162125E-01
 1.108108088E-01 9.459459782E-02 8.378378302E-02 8.918918669E-02 1.054054052E-01
 1.000000015E-01 4.925717041E-02 4.643166810E-02 5.254523084E-02 3.484017402E-02
 3.166608512E-02 3.961144015E-02 3.953094408E-02 4.202816635E-02 4.547845945E-02
 6.389890611E-02 6.045294553E-02 5.410350859E-02 5.888146162E-02 3.383716196E-02
 2.868993394E-02 2.206880786E-02 1.915407181E-02 3.046026267E-02 2.489676140E-02
 1.979809441E-02 2.350750938E-02 3.053501621E-02 3.468806297E-02 3.166573122E-02
 7.811740041E-02 7.504629344E-02 7.431571931E-02 7.077202946E-02 7.004596293E-02
 6.668991596E-02 1.378378421E-01 1.432876289E-01 1.486930400E-01 1.324324310E-01
 1.864231378E-01 1.972972900E-01 1.918285489E-01 1.810810864E-01 1.756756753E-01
 1.282665282E-01 1.318448633E-01 9.705885500E-02 1.029294431E-01 1.253840029E-01
 1.212366223E-01 1.122730002E-01 1.073822975E-01 1.169448495E-01 1.335508823E-01
 1.373042315E-01 1.624514759E-01 1.650156677E-01 1.562731862E-01 1.574992985E-01
 1.606284380E-01 1.532593966E-01 1.481403708E-01 1.508568376E-01 1.448964030E-01
 1.396652907E-01 1.438260525E-01 1.701459736E-01 1.658461392E-01 1.686085165E-01
 1.731266528E-01 1.793782264E-01 1.779759824E-01 1.746785641E-01 1.825408190E-01
 1.833695173E-01 1.866909117E-01 1.935123354E-01 2.636325955E-01 2.602022886E-01
 2.656672597E-01 2.644846439E-01 2.619503438E-01 2.597026229E-01 1.831561923E-01
 2.000000030E-01 2.055580467E-01 1.943699718E-01 1.886463761E-01 1.425488591E-01
 1.622714102E-01 1.571277082E-01 1.470998079E-01 1.520806104E-01 1.413002461E-01
 1.371637881E-01 1.358209103E-01 1.320263594E-01 1.723021567E-01 1.774434149E-01
 1.668004841E-01 1.274231374E-01 1.247802377E-01 1.309326589E-01 1.141952798E-01
 1.104980409E-01 1.185180396E-01 1.199799702E-01 1.148898974E-01 1.216031760E-01
 1.186062694E-01 1.255829632E-01 1.217851937E-01 7.399100065E-02 7.193101197E-02
 6.065247953E-02 6.455175579E-02 4.663646221E-02 5.209797993E-02 0.000000000E+00
 2.972622868E-03 7.945429534E-03 3.206938505E-02 2.354017273E-02 1.755337976E-02
 3.764499724E-02 1.077913046E-01 1.029500216E-01 1.010802016E-01 9.616965801E-02
 8.704093099E-02 9.195457399E-02 7.781479508E-02 8.163654059E-02 7.258050144E-02
 6.990148127E-02 1.216216236E-01 1.162162200E-01 1.216216236E-01 1.162162200E-01
 1.108108088E-01 1.108108088E-01 1.000000015E-01 1.054054052E-01 2.702702768E-03
 8.108108304E-03 0.000000000E+00 1.351351384E-02 1.885029487E-02 5.675675720E-02
 6.216216087E-02 2.972972952E-02 2.425570041E-02 4.054053873E-02 3.513513505E-02
 4.594594613E-02 5.135134980E-02 6.756756455E-02 8.378378302E-02 7.297297567E-02
 7.837837934E-02 8.918918669E-02 9.459459782E-02 1.270270199E-01 1.270270199E-01
 2.587405443E-01 2.568634748E-01 2.386802733E-01 2.424563169E-01 2.459028065E-01
 2.490204126E-01 2.517623007E-01 2.541338503E-01 2.561724782E-01 2.590847313E-01
 2.578240335E-01 2.348940074E-01 2.307046801E-01 2.161996812E-01 2.110387683E-01
 2.264502645E-01 2.215405256E-01 2.606890500E-01 2.576336861E-01 2.660228908E-01
 2.622846961E-01 2.650842071E-01 2.568506300E-01 2.542558908E-01 2.523001432E-01
 2.500439286E-01 2.542867661E-01 2.121037990E-01 2.179568857E-01 2.062727511E-01
 2.000000030E-01 2.243123502E-01 2.491603941E-01 2.466718256E-01 2.443052083E-01
 2.416631728E-01 2.463359535E-01 2.308771014E-01 2.400478423E-01 2.370559573E-01
 2.135135084E-01 2.135135084E-01 2.027027011E-01 2.081081122E-01 2.189189196E-01
 2.189189196E-01 2.243243307E-01 2.243243307E-01 7.546278834E-02 8.304016292E-02
 6.241130829E-02 7.181493193E-02 4.824383929E-02 5.795165151E-02 4.398753121E-02
 4.321767017E-02 4.854483530E-02 8.751820028E-02 9.502137452E-02 1.702755541E-01
 1.648701429E-01 1.594594568E-01 1.540540606E-01 1.216216236E-01 1.270270199E-01
 1.108108088E-01 1.162162125E-01 9.459459782E-02 8.066542447E-02 8.362910151E-02
 8.601320535E-02 8.887059242E-02 1.054054052E-01 1.000000015E-01 5.212741718E-02
 4.789429158E-02 4.436350241E-02 4.269471020E-02 6.088262796E-02 6.524512172E-02
 5.664344132E-02 4.014791548E-02 4.775809124E-02 3.482279927E-02 4.236910492E-02
 4.063679650E-02 3.870880604E-02 4.667096958E-02 4.785049334E-02 7.676922530E-02
 7.413393259E-02 8.004782349E-02 6.827551126E-02 7.380826771E-02 1.378378421E-01
 1.432876289E-01 1.486930400E-01 1.324324310E-01 1.864231378E-01 1.972972900E-01
 1.918285489E-01 1.810810864E-01 1.756756753E-01 1.307154149E-01 1.261268705E-01
 1.074521914E-01 1.009618565E-01 1.170402840E-01 1.220749244E-01 1.124383211E-01
 1.321029514E-01 1.372994632E-01 1.559967697E-01 1.609221399E-01 1.582313180E-01
 1.635756344E-01 1.505702734E-01 1.467834413E-01 1.529811919E-01 1.569825560E-01
 1.533885151E-01 1.387937665E-01 1.430302411E-01 1.463098079E-01 1.702424139E-01
 1.682587564E-01 1.643543690E-01 1.733317822E-01 1.756742299E-01 1.787242144E-01
 1.849997342E-01 1.879334301E-01 1.842933446E-01 1.812671721E-01 1.930053681E-01
 1.945205182E-01 1.900539696E-01 2.297297269E-01 2.297297269E-01 2.351351380E-01
 2.351351380E-01 2.405405343E-01 2.405405343E-01 2.459459454E-01 2.459459454E-01
 2.684021592E-01 2.682627439E-01 2.640136480E-01 2.611531019E-01 2.666137218E-01
 2.691619396E-01 2.698664963E-01 1.828503907E-01 2.000000030E-01 2.056300193E-01
 1.942836046E-01 1.884402782E-01 1.430899799E-01 1.461630911E-01 1.613235772E-01
 1.504378319E-01 1.558671445E-01 1.443674117E-01 1.417301297E-01 1.467440873E-01
 1.385975182E-01 1.377564371E-01 1.338861436E-01 1.717098951E-01 1.769610494E-01
 1.659662575E-01 1.292772740E-01 1.327449679E-01 1.262883544E-01 1.083802059E-01
 1.117815673E-01 1.200994328E-01 1.233784854E-01 1.192115471E-01 1.153606102E-01
 1.157838702E-01 1.119452268E-01 1.047027111E-01 1.010223702E-01 6.027818471E-02
 6.356792152E-02 4.831330478E-02 5.259423330E-02 3.895771876E-02 0.000000000E+00
 0.000000000E+00 3.727158764E-03 3.727158764E-03 8.729522116E-03 9.484058246E-03
 1.833747141E-02 2.586761303E-02 3.492545336E-02 9.652722627E-02 9.193348140E-02
 8.096134663E-02 8.634463698E-02 6.980359554E-02 7.436270267E-02 5.965256691E-02
 6.320922077E-02 1.216216236E-01 1.162162200E-01 1.108108088E-01 1.000000015E-01
 1.054054052E-01 2.702702768E-03 8.108108304E-03 0.000000000E+00 1.351351384E-02
 1.885029487E-02 5.675675720E-02 6.216216087E-02 2.425570041E-02 2.972972952E-02
 4.054053873E-02 3.513513505E-02 4.594594613E-02 5.135134980E-02 6.756756455E-02
 8.378378302E-02 7.297297567E-02 7.837837934E-02 8.918918669E-02 9.459459782E-02
 1.324324310E-01 1.324324310E-01 1.270270199E-01 1.378378421E-01 1.378378421E-01
 2.600514293E-01 2.615428567E-01 2.391024381E-01 2.430064827E-01 2.466074824E-01
 2.499095351E-01 2.528690100E-01 2.554939687E-01 2.578240335E-01 2.598058581E-01
 2.352749109E-01 2.310399413E-01 2.163766325E-01 2.111818790E-01 2.267930061E-01
 2.218196690E-01 2.700234950E-01 2.668789029E-01 2.706080675E-01 2.594201267E-01
 2.617987990E-01 2.664833963E-01 2.642028332E-01 2.536647320E-01 2.507264614E-01
 2.529745698E-01 2.570035458E-01 2.595421672E-01 2.565040290E-01 2.124599367E-01
 2.184852958E-01 2.064876705E-01 1.983615607E-01 2.005977780E-01 2.251458466E-01
 2.509101629E-01 2.490082383E-01 2.531170845E-01 2.544204593E-01 2.417158931E-01
 2.443979084E-01 2.460996360E-01 2.486792207E-01 2.346308678E-01 2.315767109E-01
 2.365374714E-01 2.414587885E-01 2.392722666E-01 2.135135084E-01 2.027027011E-01
 2.081081122E-01 2.189189196E-01 2.243243307E-01 7.637061179E-02 8.449650556E-02
 6.337139755E-02 7.238672674E-02 5.822089314E-02 5.737820640E-02 6.251384318E-02
 9.953125566E-02 9.056907892E-02 1.702755541E-01 1.648701429E-01 1.594594568E-01
 1.540540606E-01 1.216216236E-01 1.270270199E-01 1.105947345E-01 1.125449687E-01
 1.150861233E-01 1.167394966E-01 9.146062285E-02 9.448192269E-02 8.742219210E-02
 9.106780589E-02 8.329468220E-02 8.712306619E-02 1.078893617E-01 1.054027304E-01
 1.025192738E-01 9.981925040E-02 9.700386971E-02 5.737627670E-02 6.026730314E-02
 6.753688306E-02 5.273611471E-02 5.088621378E-02 6.110583991E-02 6.312530488E-02
 5.555775762E-02 5.784500763E-02 6.232909486E-02 7.776442170E-02 8.270744234E-02
 7.384621352E-02 1.378378421E-01 1.432876289E-01 1.486930400E-01 1.324324310E-01
 1.864231378E-01 1.972972900E-01 1.918285489E-01 1.810810864E-01 1.756756753E-01
 1.237894073E-01 1.292288899E-01 1.147468910E-01 1.051083952E-01 1.119378880E-01
 1.210633367E-01 1.316284090E-01 1.359967738E-01 1.383751929E-01 1.425127685E-01
 1.585770696E-01 1.620776057E-01 1.524088085E-01 1.495552510E-01 1.558011323E-01
 1.483675092E-01 1.446045786E-01 1.700531691E-01 1.637846082E-01 1.678557694E-01
 1.765513420E-01 1.803543270E-01 1.744213849E-01 1.870470643E-01 1.898740083E-01
 1.861779988E-01 1.825114191E-01 1.945113987E-01 1.922425330E-01 1.970417053E-01
 1.993767172E-01 2.297297269E-01 2.351351380E-01 2.405405343E-01 2.513513565E-01